6
converted from cpmd TRAJECTORY. NFI: 2  step#: 1
C       0.662231     0.004658     0.004091     -0.00463790590214   0.00343467559734   0.00341279868271
H       1.249375     0.908712    -0.000247      0.00586301312157   -0.0133230410113 -0.000196892231695
H       1.259077    -0.925175     0.015172       0.0114635032675   0.00400347537779    0.0125792259138
C      -0.663679    -0.004040    -0.000890      0.00376282931683  -0.00321590645101 -0.000809445841411
H      -1.236733     0.905104    -0.033843      0.00395972154852   -0.0157295016209   -0.0278055584982
H      -1.254463    -0.896005    -0.019227      -0.0107853189139    0.0222706990961   -0.0156419939624
6
converted from cpmd TRAJECTORY. NFI: 2  step#: 2
C       0.656973     0.008324     0.008251      -0.0037409524022   0.00238458369497   0.00350030634124
H       1.256876     0.895672    -0.000470      0.00673808970688  -0.00654119747518 -0.000196892231695
H       1.270421    -0.918190     0.030427      0.00632242832886   0.00798507384094    0.0126448566577
C      -0.659105    -0.007761    -0.001947      0.00365344474367  -0.00284399890225  -0.00100633807311
H      -1.233113     0.889853    -0.067250      0.00142199945113  -0.00752565863366   -0.0272586356324
H      -1.268776    -0.874044    -0.037828      -0.0134324255845    0.0115072570968   -0.0148544250356
6
converted from cpmd TRAJECTORY. NFI: 3  step#: 3
C       0.653188     0.010438     0.012544     -0.00225332220717   0.00115947647553   0.00363156782903
H       1.265651     0.892888    -0.000713      0.00697873576784   0.00179390699988 -0.000218769146327
H       1.274375    -0.905882     0.045755     0.000328153719491    0.0114635032675    0.0127323643162
C      -0.654848    -0.010920    -0.003319      0.00299713730468   -0.0023408298657   -0.0013344917926
H      -1.233306     0.886913    -0.099805     -0.00105009190237   0.00214393763401   -0.0262741744739
H      -1.286936    -0.868180    -0.055164      -0.0153138402429   -0.0011375995609   -0.0134543024991
6
converted from cpmd TRAJECTORY. NFI: 4  step#: 4
C       0.651542     0.011103     0.017023    -0.000328153719491  0.000218769146327   0.00378470623146
H       1.273756     0.900000    -0.001020        0.004944182707    0.0083569813897 -0.000262522975593
H       1.271216    -0.890435     0.061238     -0.00437538292654    0.0120541799626    0.0129730103772
C      -0.651833    -0.013438    -0.005191      0.00150950710966  -0.00181578391452  -0.00185953774378
H      -1.235679     0.895039    -0.130827      -0.0013344917926   0.00886015042625   -0.0245240213033
H      -1.305827    -0.876779    -0.070387      -0.0134105486699   -0.0101727653042   -0.0112666110359
6
converted from cpmd TRAJECTORY. NFI: 5  step#: 5
C       0.652421     0.010969     0.021717      0.00172827625599 -8.75076585309e-05   0.00395972154852
H       1.277589     0.913106    -0.001369     6.56307438982e-05    0.0113103648651 -0.000262522975593
H       1.263774    -0.876734     0.077141      -0.0061474130118   0.00818196607264    0.0134980563284
C      -0.651200    -0.015327    -0.007807    -0.000765692012145  -0.00131261487796  -0.00255959901203
H      -1.236514     0.908341    -0.159135       0.0013344917926    0.0103696575359   -0.0217237762303
H      -1.319399    -0.892791    -0.082391     -0.00680372045078   -0.0131917795235  -0.00818196607264
6
converted from cpmd TRAJECTORY. NFI: 6  step#: 6
C       0.655714     0.010875     0.026620       0.0034784294266  0.000175015317062   0.00413473686558
H       1.273903     0.927361    -0.001670     -0.00669433587761    0.0107853189139 -0.000175015317062
H       1.256366    -0.870657     0.093904     -0.00463790590214  0.000306276804858    0.0143950098283
C      -0.653661    -0.016591    -0.011406     -0.00328153719491 -0.000787568926778  -0.00343467559734
H      -1.232441     0.920122    -0.183392      0.00592864386547   0.00724125874343   -0.0180047007427
H      -1.322290    -0.908708    -0.090158      0.00299713730468   -0.0111353495481  -0.00444101367044
6
converted from cpmd TRAJECTORY. NFI: 7  step#: 7
C       0.660828     0.011410     0.031706      0.00463790590214  0.000700061268247   0.00426599835338
H       1.261393     0.939176    -0.001801      -0.0134761794138   0.00826947373117                  0
H       1.252538    -0.875996     0.111953     -0.00144387636576  -0.00861950436529      0.01548885556
C      -0.659117    -0.017228    -0.016129     -0.00535984408502 -0.000262522975593  -0.00437538292654
H      -1.222152     0.925877    -0.202676        0.010544672853   0.00185953774378   -0.0138480869625
H      -1.312164    -0.919725    -0.093115       0.0132136564382  -0.00667245896298 -0.000459415207287
6
converted from cpmd TRAJECTORY. NFI: 8  step#: 8
C       0.666907     0.012586     0.036949      0.00503169036553   0.00100633807311   0.00439725984118
H       1.241285     0.947346    -0.001658      -0.0183328544622    0.0058192592923   0.00024064606096
H       1.252898    -0.891518     0.131359        0.001071968817   -0.0145043944015    0.0164076859745
C      -0.666650    -0.017252    -0.021977     -0.00645368981665  0.000218769146327  -0.00522858259722
H      -1.206921     0.924613    -0.216868       0.0131480256943  -0.00284399890225  -0.00997587307252
H      -1.290321    -0.924841    -0.091282        0.021023714962  -0.00297526039005   0.00325966028028
6
converted from cpmd TRAJECTORY. NFI: 9  step#: 9
C       0.673025     0.013827     0.042350      0.00470353664604   0.00072193818288   0.00452852132897
H       1.217036     0.953247    -0.001203      -0.0198423615719   0.00518482876796  0.000503169036553
H       1.255129    -0.911097     0.151648      0.00131261487796   -0.0146794097186    0.0168014704379
C      -0.674743    -0.016697    -0.028795     -0.00619116684106  0.000678184353614  -0.00592864386547
H      -1.190330     0.918995    -0.226795       0.0122510721943  -0.00426599835338    -0.007088120341
H      -1.261334    -0.926935    -0.085222       0.0242396214131  -0.00280024507299   0.00638805907276
6
converted from cpmd TRAJECTORY. NFI: 10  step#: 10
C       0.678265     0.014326     0.047919      0.00365344474367 -0.000131261487796   0.00465978281677
H       1.193266     0.959902    -0.000462      -0.0177640546818   0.00684747428004   0.00072193818288
H       1.256069    -0.927001     0.171993    -0.000612553609716  -0.00921018106038    0.0165170705477
C      -0.681648    -0.015630    -0.036315     -0.00459415207287   0.00102821498774  -0.00638805907276
H      -1.177289     0.914271    -0.234031      0.00748190480439  -0.00144387636576  -0.00557861323134
H      -1.231713    -0.931619    -0.075817       0.0223144529254  -0.00704436651174   0.00879451968236
6
converted from cpmd TRAJECTORY. NFI: 11  step#: 11
C       0.681845     0.013518     0.053645      0.00205642997548   -0.0012032303048   0.00476916738993
H       1.174050     0.969803     0.000553      -0.0131480256943   0.00936331946281   0.00100633807311
H       1.253663    -0.933385     0.191603     -0.00341279868271 -0.000503169036553    0.0157513785356
C      -0.685878    -0.014185    -0.044248     -0.00207830689011   0.00124698413407  -0.00665058204835
H      -1.172248     0.915496    -0.240268     6.56307438982e-05   0.00395972154852  -0.00511919802406
H      -1.207371    -0.943952    -0.063924       0.0168233473526   -0.0134543024991    0.0105884266822
6
converted from cpmd TRAJECTORY. NFI: 12  step#: 12
C       0.683231     0.011426     0.059471     0.000131261487796  -0.00199079923158    0.0048129212192
H       1.161440     0.982567     0.001961     -0.00776630469462    0.0102383960481   0.00144387636576
H       1.247826    -0.928232     0.210080     -0.00542547482892   0.00807258149948    0.0148981788649
C      -0.686680    -0.012600    -0.052377      0.00072193818288   0.00124698413407  -0.00675996662151
H      -1.177130     0.923867    -0.246440     -0.00754753554829   0.00816008915801  -0.00498793653626
H      -1.190994    -0.964184    -0.050203       0.0106540574261   -0.0176546701086    0.0118354108163
6
converted from cpmd TRAJECTORY. NFI: 13  step#: 13
C       0.682167     0.008720     0.065278     -0.00190329157305  -0.00205642997548   0.00472541356067
H       1.155248     0.994566     0.004053     -0.00306276804858   0.00761316629219   0.00216581454864
H       1.240524    -0.913862     0.227621     -0.00520670568259    0.0132792871821    0.0144606405722
C      -0.684149    -0.011178    -0.060584      0.00319402953638   0.00100633807311  -0.00678184353614
H      -1.190485     0.935247    -0.252350      -0.0129948872918   0.00774442777998  -0.00444101367044
H      -1.181623    -0.986640    -0.035318      0.00597239769473   -0.0161232860843    0.0124042105968
6
converted from cpmd TRAJECTORY. NFI: 14  step#: 14
C       0.678618     0.006465     0.070903     -0.00387221388999   -0.0012688610487   0.00450664441434
H       1.154037     1.000969     0.007175     0.000437538292654   0.00157513785356   0.00308464496321
H       1.235239    -0.896120     0.245045     -0.00207830689011    0.0132792871821    0.0148106712064
C      -0.678965    -0.010175    -0.068801      0.00500981345089  0.000590676695084  -0.00675996662151
H      -1.208539     0.942593    -0.257164      -0.0151169480112   0.00188141465841  -0.00323778336564
H      -1.176557    -1.003201    -0.020176      0.00343467559734  -0.00866325819456    0.0121854414504
6
converted from cpmd TRAJECTORY. NFI: 15  step#: 15
C       0.672778     0.005658     0.076197     -0.00555673631671  0.000131261487796   0.00422224452412
H       1.156309     0.998402     0.011539      0.00299713730468   -0.0059505207801   0.00409098303632
H       1.235482    -0.881766     0.263443      0.00297526039005   0.00892578117015    0.0158607631087
C      -0.672050    -0.009754    -0.076953      0.00603802843863  6.56307438982e-05  -0.00667245896298
H      -1.227060     0.939787    -0.260195       -0.014176240682  -0.00761316629219  -0.00175015317062
H      -1.173339    -1.007581    -0.005847       0.0024064606096   0.00231895295107    0.0111134726334
6
converted from cpmd TRAJECTORY. NFI: 16  step#: 16
C       0.665185     0.006762     0.081102     -0.00660682821908   0.00157513785356   0.00393784463389
H       1.161261     0.986577     0.017089      0.00527233642649   -0.0123385798529   0.00492230579236
H       1.242462    -0.874547     0.283414      0.00750378171902   0.00363156782903    0.0169327319257
C      -0.664353    -0.009997    -0.084951      0.00634430524349  -0.00048129212192  -0.00651932056055
H      -1.242834     0.924166    -0.261409      -0.0113541186944   -0.0175234086208 -0.000568799780451
H      -1.170724    -0.997613     0.006699      0.00179390699988     0.013104271865   0.00938519637744
6
converted from cpmd TRAJECTORY. NFI: 17  step#: 17
C       0.656789     0.009487     0.085719     -0.00678184353614   0.00258147592666   0.00378470623146
H       1.169063     0.968547     0.023462      0.00800695075558   -0.0152700864136   0.00535984408502
H       1.253655    -0.872976     0.304419      0.00890390425552   0.00096258424384    0.0171952549013
C      -0.656716    -0.010920    -0.092706      0.00603802843863  -0.00102821498774  -0.00627867449959
H      -1.254503     0.897416    -0.261578      -0.0082913506458   -0.0243271290716 -0.000328153719491
H      -1.168991    -0.975871     0.016880     0.000328153719491    0.0199954999743   0.00743815097513
6
converted from cpmd TRAJECTORY. NFI: 18  step#: 18
C       0.648791     0.013030     0.090273      -0.0059505207801   0.00293150656079   0.00385033697536
H       1.180642     0.949660     0.030066       0.0114635032675   -0.0137387023894   0.00527233642649
H       1.263981    -0.872213     0.325011      0.00612553609716   0.00214393763401    0.0162326706575
C      -0.649773    -0.012482    -0.100146      0.00529421334112  -0.00153138402429  -0.00599427460937
H      -1.262903     0.865310    -0.262218     -0.00667245896298   -0.0253115902301  -0.00155326093892
H      -1.169908    -0.949249     0.024705     -0.00293150656079     0.020192392206   0.00575362854841
6
converted from cpmd TRAJECTORY. NFI: 19  step#: 19
C       0.642377     0.016576     0.095022     -0.00424412143875   0.00275649124372   0.00409098303632
H       1.196818     0.935315     0.036234       0.0150294403527  -0.00879451968236   0.00470353664604
H       1.268472    -0.867790     0.343690     0.000131261487796   0.00586301312157    0.0143293790844
C      -0.643922    -0.014615    -0.107229      0.00424412143875  -0.00199079923158  -0.00570987471914
H      -1.270666     0.836197    -0.265317     -0.00726313565806   -0.0196673462548  -0.00435350601191
H      -1.176072    -0.927037     0.030778     -0.00791944309705    0.0134105486699   0.00459415207287
6
converted from cpmd TRAJECTORY. NFI: 20  step#: 20
C       0.638511     0.019698     0.100159     -0.00188141465841   0.00245021443887   0.00444101367044
H       1.217009     0.928386     0.041418       0.0172827625599  -0.00295338347542    0.0037409524022
H       1.264307    -0.858033     0.359665     -0.00695685885321   0.00953833477987    0.0122073183651
C      -0.639486    -0.017281    -0.113944      0.00286587581689  -0.00242833752423  -0.00540359791428
H      -1.280474     0.817733    -0.272740     -0.00903516574332  -0.00960396552377  -0.00833510447507
H      -1.189080    -0.916826     0.035839      -0.0129730103772   0.00277836815836   0.00382846006073
6
converted from cpmd TRAJECTORY. NFI: 21  step#: 21
C       0.637800     0.022509     0.105752     0.000743815097513    0.0024064606096   0.00476916738993
H       1.238604     0.928175     0.045299       0.0168671011818    0.0013344917926   0.00262522975593
H       1.251658    -0.844731     0.373223       -0.012688610487    0.0104790421091    0.0107853189139
C      -0.636974    -0.020500    -0.120282      0.00100633807311  -0.00288775273152  -0.00507544419479
H      -1.292508     0.812979    -0.285487     -0.00951645786524  0.000568799780451   -0.0126448566577
H      -1.207439    -0.920291     0.040014      -0.0154669786453  -0.00665058204835   0.00277836815836
6
converted from cpmd TRAJECTORY. NFI: 22  step#: 22
C       0.640316     0.025528     0.111716      0.00319402953638   0.00284399890225   0.00498793653626
H       1.257796     0.931624     0.047771       0.0134761794138   0.00301901421932   0.00148763019503
H       1.233601    -0.832707     0.385765      -0.0151825787551   0.00684747428004    0.0108290727432
C      -0.637060    -0.024274    -0.126220      -0.0013344917926  -0.00330341410954  -0.00472541356067
H      -1.303516     0.819130    -0.303349     -0.00669433587761   0.00704436651174   -0.0164295628892
H      -1.226509    -0.932918     0.042552      -0.0138043331332   -0.0113322417798   0.00096258424384
6
converted from cpmd TRAJECTORY. NFI: 23  step#: 23
C       0.645516     0.029375     0.117831      0.00498793653626   0.00365344474367   0.00500981345089
H       1.271196     0.935454     0.048876      0.00798507384094    0.0025377220974  0.000393784463389
H       1.214923    -0.828150     0.399398      -0.0140449791942  -0.00105009190237     0.012447964426
C      -0.640180    -0.028497    -0.131716     -0.00376282931683  -0.00358781399977  -0.00433162909728
H      -1.308694     0.829997    -0.325239    -0.000350030634124    0.0084226121336   -0.0192079310475
H      -1.240828    -0.947681     0.042329     -0.00826947373117   -0.0106978112554  -0.00166264551209
6
converted from cpmd TRAJECTORY. NFI: 24  step#: 24
C       0.652399     0.034367     0.123834      0.00590676695084   0.00446289058508   0.00485667504846
H       1.277119     0.937761     0.048723      0.00201267614621   0.00135636870723 -0.000612553609716
H       1.199645    -0.835252     0.415851      -0.0108509496578   -0.0101508883896    0.0148106712064
C      -0.646160    -0.032955    -0.136703     -0.00577550546304  -0.00365344474367  -0.00387221388999
H      -1.304379     0.839505    -0.349828      0.00789756618241   0.00575362854841   -0.0210018380474
H      -1.246514    -0.958770     0.038517    -0.000678184353614  -0.00654119747518  -0.00470353664604
6
converted from cpmd TRAJECTORY. NFI: 25  step#: 25
C       0.659819     0.040182     0.129553      0.00590676695084   0.00476916738993   0.00459415207287
H       1.276070     0.938721     0.047417     -0.00275649124372   0.00109384573164  -0.00153138402429
H       1.188680    -0.852728     0.435216     -0.00809445841411   -0.0159263938526    0.0164951936331
C      -0.654154    -0.037353    -0.141102     -0.00686935119468   -0.0034784294266  -0.00336904485344
H      -1.289584     0.843903    -0.376056       0.0157732554502    0.0012688610487   -0.0221831914376
H      -1.242447    -0.963529     0.030960      0.00662870513372  -0.00177203008525  -0.00754753554829
6
converted from cpmd TRAJECTORY. NFI: 26  step#: 26
C       0.666686     0.045883     0.134960      0.00503169036553   0.00420036760948   0.00435350601191
H       1.270447     0.940410     0.045002     -0.00522858259722   0.00284399890225  -0.00245021443887
H       1.180048    -0.873794     0.455773      -0.0072193818288   -0.0153794709868    0.0164951936331
C      -0.662789    -0.041355    -0.144834     -0.00673808970688  -0.00299713730468  -0.00277836815836
H      -1.266224     0.842552    -0.403469       0.0211330995352  -0.00255959901203   -0.0232770371692
H      -1.230459    -0.963037     0.020258       0.0114416263529  0.000743815097513  -0.00964771935303
6
converted from cpmd TRAJECTORY. NFI: 27  step#: 27
C       0.672016     0.050351     0.140105      0.00345655251197   0.00286587581689   0.00415661378022
H       1.263420     0.945586     0.041496     -0.00544735174355   0.00627867449959  -0.00328153719491
H       1.171196    -0.889935     0.475138     -0.00794132001168  -0.00868513510919    0.0147887942917
C      -0.670431    -0.044606    -0.147826     -0.00527233642649  -0.00225332220717  -0.00214393763401
H      -1.238472     0.837701    -0.432363       0.0226644835595  -0.00387221388999   -0.0248740519374
H      -1.214775    -0.961719     0.007630       0.0123823336821  -0.00096258424384   -0.0106540574261
6
converted from cpmd TRAJECTORY. NFI: 28  step#: 28
C       0.675031     0.052801     0.145023       0.0013344917926    0.0011375995609   0.00395972154852
H       1.257255     0.955611     0.037050      -0.0046816597314    0.0096258424384  -0.00387221388999
H       1.160862    -0.894798     0.491548     -0.00890390425552   0.00153138402429    0.0121854414504
C      -0.675528    -0.046805    -0.150019     -0.00273461432909   -0.0013344917926  -0.00146575328039
H      -1.211414     0.833208    -0.463628       0.0203674075231  -0.00231895295107   -0.0271492510592
H      -1.200499    -0.965376    -0.005531      0.00973522701156  -0.00649744364592   -0.0107415650847
6
converted from cpmd TRAJECTORY. NFI: 29  step#: 29
C       0.675261     0.053105     0.149668     -0.00102821498774 -0.000415661378022    0.0036753216583
H       1.252111     0.968864     0.032119     -0.00452852132897    0.0105884266822  -0.00395972154852
H       1.149659    -0.886233     0.504591     -0.00864138127993    0.0115728878407   0.00988836541399
C      -0.677029    -0.047834    -0.151381     0.000350030634124 -0.000415661378022 -0.000809445841411
H      -1.189193     0.832106    -0.498056        0.015663870877  0.000437538292654   -0.0296432193273
H      -1.191204    -0.977437    -0.018339      0.00551298248745   -0.0126011028284   -0.0104571651944
6
converted from cpmd TRAJECTORY. NFI: 30  step#: 30
C       0.672552     0.051801     0.153904     -0.00343467559734  -0.00135636870723   0.00325966028028
H       1.246325     0.981211     0.027448     -0.00590676695084   0.00800695075558  -0.00343467559734
H       1.139956    -0.866788     0.515451     -0.00590676695084    0.0178953161696   0.00916642723111
C      -0.674672    -0.047830    -0.151961      0.00334716793881  0.000306276804858  -0.00024064606096
H      -1.173501     0.834250    -0.535355       0.0106540574261   0.00161889168282   -0.0312621110102
H      -1.187186    -0.995872    -0.030801      0.00214393763401   -0.0151607018405   -0.0103915344505
6
converted from cpmd TRAJECTORY. NFI: 31  step#: 31
C       0.666974     0.049850     0.157531     -0.00568799780451  -0.00148763019503   0.00269086049983
H       1.237811     0.988210     0.023811     -0.00866325819456    0.0025377220974  -0.00238458369497
H       1.135364    -0.842941     0.526749    -0.000218769146327    0.0183766082915    0.0108071958286
C      -0.668937    -0.047085    -0.151955      0.00575362854841  0.000787568926778  0.000109384573164
H      -1.163421     0.836023    -0.573650      0.00697873576784 -0.000700061268247   -0.0308683265468
H      -1.186003    -1.014104    -0.043459      0.00109384573164   -0.0120104261334   -0.0106978112554
6
converted from cpmd TRAJECTORY. NFI: 32  step#: 32
C       0.658814     0.048215     0.160393     -0.00754753554829  -0.00102821498774   0.00207830689011
H       1.225392     0.987336     0.021678      -0.0117041493285   -0.0037409524022  -0.00115947647553
H       1.139409    -0.822339     0.541602      0.00739439714586    0.0139574715357    0.0144606405722
C      -0.660768    -0.045906    -0.151720       0.0072850125727   0.00105009190237  0.000109384573164
H      -1.156613     0.832548    -0.610048      0.00525045951185  -0.00647556673129   -0.0281555891323
H      -1.184517    -1.024925    -0.056688      0.00225332220717  -0.00402535229242   -0.0110915957188
6
converted from cpmd TRAJECTORY. NFI: 33  step#: 33
C       0.648706     0.047374     0.162553     -0.00870701202382 -0.000459415207287   0.00166264551209
H       1.209502     0.979176     0.021004      -0.0136949485601   -0.0082257199019 -0.000196892231695
H       1.153228    -0.809174     0.561708       0.0142856252552   0.00861950436529    0.0183109775476
C      -0.651310    -0.044551    -0.151705      0.00787568926778   0.00109384573164 -0.000262522975593
H      -1.150725     0.820336    -0.641778      0.00507544419479   -0.0139137177064   -0.0236270678033
H      -1.180564    -1.023825    -0.070303      0.00444101367044   0.00597239769473   -0.0110915957188
6
converted from cpmd TRAJECTORY. NFI: 34  step#: 34
C       0.637738     0.047081     0.164413     -0.00883827351162 -0.000306276804858   0.00168452242672
H       1.192251     0.967449     0.021188       -0.013519933243  -0.00888202734089  0.000109384573164
H       1.173938    -0.801486     0.585901       0.0175890393647   0.00647556673129    0.0203236536938
C      -0.641739    -0.043236    -0.152367      0.00752565863366   0.00100633807311 -0.000984461158473
H      -1.144320     0.798870    -0.667219      0.00553485940208   -0.0203892844377   -0.0184859928647
H      -1.173768    -1.010488    -0.083530      0.00610365918253    0.0143731329137   -0.0102821498774
6
converted from cpmd TRAJECTORY. NFI: 35  step#: 35
C       0.627335     0.046657     0.166626     -0.00776630469462 -0.000634430524349   0.00225332220717
H       1.176786     0.957704     0.021278      -0.0109165804017  -0.00525045951185 -0.000328153719491
H       1.195752    -0.793518     0.610870       0.0160576553404   0.00881639659699    0.0195798385963
C      -0.633121    -0.042123    -0.154088      0.00638805907276  0.000787568926778  -0.00196892231695
H      -1.137336     0.771007    -0.686504      0.00546922865818   -0.0233426679131   -0.0142199945113
H      -1.165801    -0.989053    -0.095153      0.00564424397524    0.0178734392549   -0.0083569813897
6
converted from cpmd TRAJECTORY. NFI: 36  step#: 36
C       0.618971     0.045548     0.169848     -0.00555673631671   -0.0012032303048   0.00325966028028
H       1.165868     0.954764     0.020375     -0.00682559736541  0.000984461158473  -0.00131261487796
H       1.212793    -0.780168     0.633243       0.0105665497676    0.0140231022796    0.0166702089501
C      -0.626269    -0.041317    -0.157121      0.00472541356067  0.000503169036553  -0.00308464496321
H      -1.131099     0.742418    -0.701640      0.00398159846316   -0.0211330995352   -0.0121416876212
H      -1.160125    -0.967250    -0.103738      0.00212206071937    0.0146356558893  -0.00529421334112
6
converted from cpmd TRAJECTORY. NFI: 37  step#: 37
C       0.613899     0.043722     0.174516      -0.0025377220974  -0.00157513785356   0.00448476749971
H       1.160302     0.960092     0.018093     -0.00301901421932   0.00675996662151   -0.0023408298657
H       1.221289    -0.759580     0.651168      0.00323778336564    0.0191860541329    0.0131480256943
C      -0.621676    -0.040918    -0.161554      0.00275649124372  8.75076585309e-05  -0.00424412143875
H      -1.127727     0.719913    -0.715866     0.000984461158473   -0.0139793484503   -0.0125354720846
H      -1.160679    -0.953638    -0.107938     -0.00387221388999   0.00584113620694  -0.00129073796333
6
converted from cpmd TRAJECTORY. NFI: 38  step#: 38
C       0.612852     0.041737     0.180711     0.000787568926778  -0.00131261487796   0.00562236706061
H       1.158572     0.971137     0.014716    -0.000940707329207   0.00953833477987  -0.00293150656079
H       1.220637    -0.733753     0.665031     -0.00317215262175    0.0212424841084    0.0109384573164
C      -0.619606    -0.041124    -0.167370     0.000612553609716 -0.000546922865818  -0.00535984408502
H      -1.128712     0.708617    -0.731944     -0.00236270678033  -0.00433162909728   -0.0142418714259
H      -1.169486    -0.953098    -0.106870     -0.00999774998716  -0.00415661378022   0.00310652187785
6
converted from cpmd TRAJECTORY. NFI: 39  step#: 39
C       0.615781     0.040540     0.188115      0.00369719857293 -0.000262522975593   0.00634430524349
H       1.158051     0.983187     0.010990    -0.000809445841411   0.00859762745066  -0.00288775273152
H       1.213631    -0.708181     0.677629     -0.00625679758496    0.0179609469135    0.0117697800724
C      -0.620211    -0.042259    -0.174517     -0.00159701476819  -0.00144387636576  -0.00643181290202
H      -1.133469     0.709417    -0.750291     -0.00435350601191   0.00420036760948   -0.0151825787551
H      -1.184875    -0.963716    -0.100446      -0.0136074409016   -0.0105009190237   0.00719750491417
6
converted from cpmd TRAJECTORY. NFI: 40  step#: 40
C       0.621790     0.041121     0.196076      0.00566612088988   0.00146575328039   0.00651932056055
H       1.156627     0.991926     0.007736     -0.00179390699988     0.004944182707  -0.00225332220717
H       1.205486    -0.690304     0.693487     -0.00529421334112   0.00921018106038    0.0160795322551
C      -0.623458    -0.044619    -0.182917      -0.0036096909144  -0.00249396826813  -0.00739439714586
H      -1.139243     0.718776    -0.768645     -0.00378470623146   0.00892578117015   -0.0137824562186
H      -1.202413    -0.978478    -0.089460      -0.0134761794138     -0.01071968817    0.0103915344505
6
converted from cpmd TRAJECTORY. NFI: 41  step#: 41
C       0.629469     0.044088     0.203867      0.00645368981665   0.00336904485344   0.00619116684106
H       1.153689     0.995132     0.005541     -0.00260335284129  0.000590676695084  -0.00131261487796
H       1.200833    -0.685886     0.716543     -0.00223144529254  -0.00179390699988    0.0220956837791
C      -0.628954    -0.048317    -0.192387     -0.00514107493869  -0.00356593708513  -0.00813821224337
H      -1.142601     0.731027    -0.783614    -0.000765692012145   0.00921018106038  -0.00988836541399
H      -1.217454    -0.989635    -0.075336      -0.0101727653042  -0.00557861323134    0.0123167029382
6
converted from cpmd TRAJECTORY. NFI: 42  step#: 42
C       0.637426     0.049260     0.211035      0.00623492067033   0.00479104430457   0.00564424397524
H       1.150356     0.993343     0.004554     -0.00188141465841  -0.00229707603644 -0.000459415207287
H       1.200069    -0.694665     0.746949    -0.000700061268247  -0.00993211924326    0.0263835590471
C      -0.635887    -0.053244    -0.202583     -0.00586301312157  -0.00446289058508  -0.00853199670676
H      -1.141083     0.741039    -0.792585       0.0035440601705   0.00612553609716  -0.00463790590214
H      -1.227045    -0.991982    -0.059694     -0.00546922865818   0.00223144529254    0.0129948872918
6
converted from cpmd TRAJECTORY. NFI: 43  step#: 43
C       0.644560     0.055667     0.217537      0.00518482876796   0.00529421334112   0.00516295185332
H       1.149120     0.989569     0.004424      0.00102821498774  -0.00229707603644 -2.18769146327e-05
H       1.199139    -0.709934     0.780363     -0.00290962964615   -0.0116603954992    0.0263835590471
C      -0.643122    -0.059105    -0.213019     -0.00555673631671  -0.00505356728016   -0.0084882428775
H      -1.134053     0.745847    -0.794806      0.00756941246292   0.00172827625599  0.000393784463389
H      -1.230685    -0.984234    -0.043888     -0.00135636870723    0.0094289502067    0.0128417488894
6
converted from cpmd TRAJECTORY. NFI: 44  step#: 44
C       0.649991     0.062042     0.223544      0.00350030634124   0.00485667504846    0.0048129212192
H       1.152831     0.987786     0.004509      0.00579738237767  0.000328153719491 -2.18769146327e-05
H       1.193023    -0.722850     0.810769     -0.00844448904823  -0.00695685885321    0.0219862992059
C      -0.649325    -0.065456    -0.223132     -0.00413473686558  -0.00522858259722  -0.00800695075558
H      -1.122760     0.745221    -0.791631      0.00999774998716  -0.00183766082915   0.00358781399977
H      -1.230351    -0.969185    -0.028607     0.000328153719491    0.0129948872918    0.0124917182553
6
converted from cpmd TRAJECTORY. NFI: 45  step#: 45
C       0.653020     0.067412     0.229167       0.0013344917926   0.00389409080463   0.00446289058508
H       1.163152     0.990364     0.004377        0.010960334231   0.00343467559734 -8.75076585309e-05
H       1.178691    -0.726740     0.833557      -0.0153138402429   0.00159701476819    0.0149856865234
C      -0.653134    -0.071772    -0.232374     -0.00168452242672  -0.00500981345089    -0.007088120341